BEGIN_CFG
 Size
   87
 Supercell
   4.4639863968	0.0	0.0
   1.4985900639	4.204925965	0.0
   -4.4481135298	6.3074159327	5.1021135002
 AtomData:  id type   cartes_x  cartes_y  cartes_z
	1	  0	0.7492847250141813  2.1024671280353586  1.2639970679197439
	2	  0	-3.6988288047858178  8.409883060735357  6.366110568119743
	3	  0	2.247874788914181  6.307393093035359  1.2639970679197439
	4	  0	-2.200238740885818  12.614809025735358  6.366110568119743
	5	  0	5.213271121814181  2.1024671280353586  1.2639970679197439
	6	  0	0.7651575920141817  8.409883060735357  6.366110568119743
	7	  0	6.711861185714181  6.307393093035359  1.2639970679197439
	8	  0	2.2637476559141816  12.614809025735358  6.366110568119743
	9	  0	1.4985829334648164  4.20493607597233  2.5035885789782477
	10	  0	-2.949530596335183  10.51235200867233  7.605702079178248
	11	  0	2.9971729973648165  8.40986204097233  2.5035885789782477
	12	  0	-1.4509405324351834  14.71727797367233  7.605702079178248
	13	  0	5.9625693302648175  4.20493607597233  2.5035885789782477
	14	  0	1.5144558004648176  10.51235200867233  7.605702079178248
	15	  0	7.4611593941648175  8.40986204097233  2.5035885789782477
	16	  0	3.013045864364818  14.71727797367233  7.605702079178248
	17	  0	-2.2161193315617544  6.307404235120415  3.83811696290006
	18	  0	-6.6642328613617545  12.614820167820415  8.94023046310006
	19	  0	-0.717529267661755  10.512330200120415  3.83811696290006
	20	  0	-5.1656427974617545  16.819746132820413  8.94023046310006
	21	  0	2.2478670652382458  6.307404235120415  3.83811696290006
	22	  0	-2.200246464561754  12.614820167820415  8.94023046310006
	23	  0	3.746457129138246  10.512330200120415  3.83811696290006
	24	  0	-0.7016564006617539  16.819746132820413  8.94023046310006
	25	  0	2.9812880969754842  2.102462608261589  0.0
	26	  0	-1.4668254328245154  8.40987854096159  5.1021135002
	27	  0	-5.914938962624515  14.717294473661589  10.2042270004
	28	  0	4.479878160875485  6.307388573261589  0.0
	29	  0	0.031764631075485106  12.614804505961589  5.1021135002
	30	  0	-4.4163488987245145  18.92222043866159  10.2042270004
	31	  0	7.445274493775485  2.102462608261589  0.0
	32	  0	2.9971609639754853  8.40987854096159  5.1021135002
	33	  0	-1.4509525658245144  14.717294473661589  10.2042270004
	34	  0	8.943864557675486  6.307388573261589  0.0
	35	  0	4.495751027875486  12.614804505961589  5.1021135002
	36	  0	0.04763749807548656  18.92222043866159  10.2042270004
	37	  0	3.7305818695912385  4.204940011037564  1.2639978281346553
	38	  0	-0.7175316602087614  10.512355943737564  6.3661113283346555
	39	  0	5.229171933491238  8.409865976037564  1.2639978281346553
	40	  0	0.7810584036912387  14.717281908737563  6.3661113283346555
	41	  0	8.19456826639124  4.204940011037564  1.2639978281346553
	42	  0	3.74645473659124  10.512355943737564  6.3661113283346555
	43	  0	9.69315833029124  8.409865976037564  1.2639978281346553
	44	  0	5.24504480049124  14.717281908737563  6.3661113283346555
	45	  0	0.015880924457107894  6.307405823836583  2.5985261406268787
	46	  0	-4.432232605342891  12.614821756536582  7.7006396408268785
	47	  0	1.514470988357108  10.512331788836583  2.5985261406268787
	48	  0	-2.9336425414428913  16.819747721536583  7.7006396408268785
	49	  0	4.4798673212571085  6.307405823836583  2.5985261406268787
	50	  0	0.0317537914571094  12.614821756536582  7.7006396408268785
	51	  0	5.978457385157109  10.512331788836583  2.5985261406268787
	52	  0	1.5303438553571094  16.819747721536583  7.7006396408268785
	53	  0	0.7651805125540414  8.409873106614398  3.8381160496217435
	54	  0	-3.6829330172459587  14.717289039314398  8.940229549821744
	55	  0	2.2637705764540414  12.6147990716144  3.8381160496217435
	56	  0	-2.1843429533459586  18.9222150043144  8.940229549821744
	57	  0	5.229166909354041  8.409873106614398  3.8381160496217435
	58	  0	0.7810533795540406  14.717289039314398  8.940229549821744
	59	  0	6.727756973254041  12.6147990716144  3.8381160496217435
	60	  0	2.2796434434540407  18.9222150043144  8.940229549821744
	61	  1	0.0  0.0  0.0
	62	  1	-4.4481135298  6.3074159327  5.1021135002
	63	  1	-8.8962270596  12.6148318654  10.2042270004
	64	  1	1.4985900639  4.204925965  0.0
	65	  1	-2.9495234658999996  10.5123418977  5.1021135002
	66	  1	-7.397636995699999  16.8197578304  10.2042270004
	67	  1	2.9971801278  8.40985193  0.0
	68	  1	-1.4509334019999995  14.7172678627  5.1021135002
	69	  1	-5.899046931799999  21.0246837954  10.2042270004
	70	  1	4.4639863968  0.0  0.0
	71	  1	0.015872867000000568  6.3074159327  5.1021135002
	72	  1	-4.432240662799999  12.6148318654  10.2042270004
	73	  1	5.9625764607  4.204925965  0.0
	74	  1	1.5144629309000006  10.5123418977  5.1021135002
	75	  1	-2.933650598899999  16.8197578304  10.2042270004
	76	  1	7.4611665246  8.40985193  0.0
	77	  1	3.0130529948000007  14.7172678627  5.1021135002
	78	  1	-1.435060534999999  21.0246837954  10.2042270004
	79	  1	8.9279727936  0.0  0.0
	80	  1	4.479859263800001  6.3074159327  5.1021135002
	81	  1	0.031745734000001136  12.6148318654  10.2042270004
	82	  1	10.4265628575  4.204925965  0.0
	83	  1	5.978449327700001  10.5123418977  5.1021135002
	84	  1	1.5303357979000012  16.8197578304  10.2042270004
	85	  1	11.9251529214  8.40985193  0.0
	86	  1	7.477039391600001  14.7172678627  5.1021135002
	87	  1	3.0289258618000012  21.0246837954  10.2042270004
 Feature    EFS_by      VASP
END_CFG

