BEGIN_CFG
 Size
   2
 Supercell
   2.5	2.5	0.0
   -2.5	2.5	5.0
   0.0	-2.5	2.5
 AtomData:  id type   cartes_x  cartes_y  cartes_z
	1	  0	0.0  0.0  0.0
	2	  1	0.0  2.5  2.5
 Feature    EFS_by      VASP
END_CFG

BEGIN_CFG
 Size
   2
 Supercell
   1.0	1.0	0.0
   -1.0	1.0	2.0
   0.0	-1.0	1.0
 AtomData:  id type   cartes_x  cartes_y  cartes_z
	1	  0	0.0  0.0  0.0
	2	  1	0.0  1.0  1.0
 Feature    EFS_by      VASP
END_CFG

