BEGIN_CFG
 Size
   43
 Supercell
   3.3286040733374698	-5.765578260415072	4.7629206546829486e-05
   3.328602316929755	5.765577238878395	-5.0342299984780885e-05
   -4.94838072220848e-06	-0.00010765569343821288	12.256710341071427
 AtomData:  id type   cartes_x  cartes_y  cartes_z
	1	  0	0.00014966866476896532  -5.1859040169103794e-05  6.128363946464187
	2	  0	6.657178805297994  -2.7807980906966458e-05  1.1906977571600537
	3	  0	6.6571777609452685  -7.933919972352959e-05  11.06602688180639
	4	  0	3.3285863016219954  1.921866548334155  0.8936342504880952
	5	  0	3.328577327305604  -1.9219757704696587  11.363066600964888
	6	  0	3.3285585909546946  1.9216922012467303  6.945824139846464
	7	  0	3.3285558747460935  -1.9218021634332143  5.310887402010122
	8	  0	1.636669480223336  -1.9202515080780598  1.169716935784904
	9	  0	4.17319291524487  -3.3880649066433266  1.1697010272827213
	10	  0	4.17593366295371  -0.4572931666260402  1.169688628820474
	11	  0	1.6366768760149621  1.9201359974641092  11.086975545281964
	12	  0	4.173181848119841  3.387947643218466  11.08699121970575
	13	  0	4.1759288806527195  0.45719638340610025  11.087000584610752
	14	  0	5.41778074144748  1.7167291916374956  2.42512583515692
	15	  0	2.461631506309925  3.833806446809691  2.425141384363116
	16	  0	2.106317548528042  0.21504744068539428  2.4252469071278004
	17	  0	5.417779298115908  -1.7168410265380076  9.831586693134774
	18	  0	2.4616258393441734  -3.833913311737181  9.831571087747106
	19	  0	2.1063170444202157  -0.21515556895053686  9.831466007830935
	20	  0	1.3029190263797847  -1.8620598191252635  3.74041497221412
	21	  0	4.289641618343405  -3.706163829559341  3.7404047838391405
	22	  0	4.39315182392037  -0.19736119295187415  3.740319123478362
	23	  0	1.3029050459552523  1.8619496453234716  8.516295767853865
	24	  0	4.289646419710552  3.7060590942279847  8.516302212657939
	25	  0	4.39315166822814  0.19724968645934424  8.516392035454597
	26	  0	5.219112874560957  1.7768296650834015  4.946629726238986
	27	  0	2.5088513398026224  3.631595143288027  4.946638786846511
	28	  0	2.2580301858052114  0.3573398982782941  4.946756189849344
	29	  0	5.219106709700426  -1.7769351861484424  7.3100801658664984
	30	  0	2.508856326539219  -3.6316977173627816  7.310068794407307
	31	  0	2.2580280900024348  -0.35745398462824146  7.309956573073162
	32	  1	2.84261684003103e-05  1.9514474398242908e-05  3.586848292212054
	33	  1	2.529067281518788e-05  -0.0001235179505236747  8.669863258054173
	34	  1	3.3285875287924904  1.9218878062247866  3.378302283479228
	35	  1	3.328579147825152  -1.9219982594490677  8.87840236306754
	36	  1	3.3286009567060986  1.9217264814718984  9.479206653892534
	37	  1	3.3286006882233528  -1.9218374484855496  2.777514737290131
	38	  1	5.596739664606701  1.8367079317944752  12.25668443982424
	39	  1	5.596753579333069  -1.836820133481928  1.8308793917237485e-05
	40	  1	2.1208379223674694  2.0241451197891417e-06  -2.263832684297558e-06
	41	  1	4.496463606697627  3.74244120538314  6.128309942881275
	42	  1	4.496451206756125  -3.7425470275126878  6.128388501350953
	43	  1	4.321547551874568  -5.864697306735783e-05  6.128348990063717
 Feature    EFS_by      VASP
END_CFG

